% Model:              Gyroid.mph
% Version:            COMSOL 6.2.0.290
% Date:               Apr 27 2025, 12:41
% Table:              切面数据 - 切面数据
% zp (mm)                速度大小 (m/s)               温度 (degC)                压力 (Pa)
-40                      1.034244918702928        33.301582559934175       21.603114067781554
-39.8                    1.2169598344041546       25.890961316265667       21.3830488784547
-39.6                    1.221131608672179        27.179633782270475       21.28598181502481
-39.4                    1.2245122147382228       28.276656882806723       21.209354139109312
-39.2                    1.2332937976779763       29.18021191157061        21.135442955483118
-39                      1.245278626355659        29.99727829281392        21.06284772405402
-38.800000000000004      1.2605841350167641       30.728195687657387       20.989075962032135
-38.6                    1.2768666793170471       31.567700270412804       20.911684154260218
-38.4                    1.2964998584797358       32.44162160396145        20.827998357250166
-38.2                    1.3181894404376304       33.433028818211085       20.734935431687024
-38                      1.3520172077230064       33.91177645265602        20.61587899678443
-37.8                    1.390352050320784        33.849397604687184       20.48466855687835
-37.6                    1.4099861376046305       34.259204942753335       20.37389246626665
-37.400000000000006      1.4206731438954066       34.837459113760794       20.268385664602334
-37.2                    1.4222709772411928       35.585551103604395       20.163141964255693
-37                      1.4061705219916956       36.839070997110035       20.044144416252237
-36.8                    1.3945190296172492       37.799239017898465       19.938678538669006
-36.6                    1.3962177608365678       38.09536714768181        19.858947667878855
-36.4                    1.4016662676640532       38.22405734371731        19.78959618095466
-36.2                    1.4088252276076312       38.30228502749599        19.725722008943798
-36.00000000000001       1.4190913651678791       38.3060172108211         19.66834381113994
-35.8                    1.4298418753575692       38.31825666502093        19.61439546321558
-35.6                    1.4419058353820369       38.29624336718723        19.563135143969994
-35.4                    1.4549154177090002       38.26015558981651        19.513747500323593
-35.2                    1.4670997322867416       38.27960453049331        19.46396736438877
-35                      1.4809113638753562       38.261773706979056       19.414514154617997
-34.8                    1.494666909603768        38.26840173923935        19.36381898795633
-34.6                    1.5091309081413575       38.294906213855874       19.312542194107866
-34.4                    1.5252575680315597       38.33264850849613        19.256958482770997
-34.2                    1.5421357732572185       38.43065444088113        19.19650285265881
-34                      1.5603904321687032       38.59074037029937        19.131389458178397
-33.8                    1.579974104172567        38.830011400252644       19.06027807868865
-33.6                    1.6002277281801065       39.23071151547956        18.976239795845576
-33.4                    1.6191737536887394       39.892717858549695       18.88129413713473
-33.2                    1.6392206814514454       40.7542212572335         18.76986752687326
-33                      1.661604583224579        41.53975399535195        18.619060688305353
-32.8                    1.6931360546935839       41.54600622124535        18.453006274089926
-32.6                    1.7025114330758364       41.91991126969191        18.34010889721405
-32.4                    1.700471323074659        42.43319224954732        18.248291176028694
-32.2                    1.6894246500968924       43.07803679763749        18.170297505555926
-32                      1.6550706908971227       44.303394080216144       18.103563991114658
-31.799999999999994      1.6342693971384863       44.96832595114441        18.05059673234278
-31.6                    1.6265689913714259       45.10361971605123        18.007715810401294
-31.4                    1.6240107451593087       45.03613391267986        17.97331801857637
-31.2                    1.6225415965042855       44.90366906646637        17.946643383890564
-31                      1.6212270033631069       44.71004346600201        17.92648465173513
-30.799999999999997      1.6203576271789093       44.50121887157405        17.913225622277572
-30.6                    1.6191786863048743       44.3131497191497         17.90333107556547
-30.4                    1.6180273321710676       44.15509071660545        17.89943536796623
-30.200000000000003      1.6168799777794634       44.04070899159637        17.895791954973014
-30                      1.617667079863816        43.930307951290104       17.896193814731667
-29.799999999999997      1.620006265547066        43.83978829582134        17.8954720039223
-29.6                    1.6232716650816037       43.77421829418792        17.893423923700762
-29.4                    1.6263023919328246       43.78963798259339        17.888450862537507
-29.2                    1.630358465899107        43.822230849752984       17.880521423279802
-29                      1.6341602572308846       43.926255560434505       17.864786017564093
-28.8                    1.6390023076305604       44.09821876849598        17.841945576124935
-28.6                    1.644578124895875        44.36607070088752        17.810443038828463
-28.4                    1.6485335276904223       44.84275986663565        17.763967107647822
-28.2                    1.6545433517391719       45.49513502996394        17.69728323693615
-28                      1.6717216183853776       45.91014195277775        17.579830320844348
-27.799999999999997      1.6962714455335541       45.93075145827332        17.45763903141666
-27.6                    1.7065025332050885       46.27845132737755        17.365075911169672
-27.400000000000002      1.7093742705333883       46.747017117631444       17.283276573542405
-27.2                    1.7051106670902667       47.315921283483966       17.20592706128185
-27                      1.6816672494596099       48.30046161102203        17.13045427910086
-26.799999999999997      1.6509935159919968       49.33726773400935        17.062814344438866
-26.6                    1.6417328242802338       49.70643196117621        17.011767377807445
-26.4                    1.6375841849004875       49.86980766262715        16.96808858369545
-26.200000000000003      1.6376802206718237       49.88884740784906        16.929697456872198
-26.000000000000004      1.6394101381381787       49.84721070470808        16.895461658920137
-25.799999999999997      1.6448268828907895       49.71568722371603        16.86329421013111
-25.6                    1.6504465813181495       49.59243925877372        16.833522642655705
-25.4                    1.65592839303384         49.474454030038416       16.80479501384007
-25.2                    1.6630789007864932       49.3406738309127         16.775637123036923
-25                      1.6712866772458783       49.23118322076243        16.745425232252956
-24.8                    1.6801050020685437       49.16406638018142        16.71407069629911
-24.6                    1.69028646471247         49.12926521574468        16.6795163706594
-24.4                    1.7006272977547208       49.15508649787063        16.643769636032566
-24.2                    1.7117211953545615       49.233547983432445       16.604249228065093
-24                      1.7219494053410072       49.42396233539153        16.56046450483574
-23.8                    1.730833090647069        49.71628035785312        16.510928313942117
-23.599999999999998      1.7399801386325027       50.08253980109282        16.453187486429915
-23.400000000000002      1.7478319098101143       50.600338334978574       16.38691601318484
-23.2                    1.7549662920036515       51.26129975167148        16.302398655276274
-23                      1.7674751829587305       51.73578778965321        16.185510368768078
-22.8                    1.7940115336759292       51.64837004498154        16.052223894774517
-22.599999999999998      1.7941460189742366       52.00295579054376        15.957289355114057
-22.4                    1.7850801309320061       52.436142375263465       15.877880945734322
-22.2                    1.7658890010251904       53.00815835320215        15.807796829716107
-22                      1.7265328995960574       53.956464012781424       15.748893015048191
-21.8                    1.6957252318834757       54.56428696208976        15.698426216896763
-21.599999999999998      1.68298440697114         54.63882154931253        15.653106728947359
-21.4                    1.675405414435793        54.55944673778243        15.612026593125057
-21.2                    1.6693884612921757       54.4205782937386         15.575111516010324
-21                      1.6642493847387678       54.26132238698863        15.54285535808673
-20.8                    1.6610636327729227       54.076980911504926       15.515236858142522
-20.599999999999998      1.6597298018805722       53.88769247550535        15.49151281408694
-20.4                    1.661081935191494        53.6747623364444         15.472960406337085
-20.2                    1.6639226263521643       53.498114592331554       15.456663579298418
-20                      1.6698440257944325       53.30752927185085        15.442821139635491
-19.799999999999997      1.6762389034927658       53.148470131775625       15.429906694105313
-19.599999999999998      1.6823669056071335       53.022531452702815       15.41809115665676
-19.400000000000002      1.6893238885614927       52.92651088155204        15.406395102310938
-19.2                    1.6960632962406865       52.880062715326886       15.392312159077486
-19                      1.7009661807046168       52.883172845914025       15.375025666782735
-18.799999999999997      1.7074177062358418       52.90034604625877        15.354244064008677
-18.599999999999998      1.7129964940924083       53.03302802607246        15.32592174273941
-18.4                    1.7209212251257202       53.2388623261958         15.286403136483568
-18.2                    1.7282273355682103       53.64081613693938        15.232174398647965
-18.000000000000004      1.7457242190053752       53.86674412657399        15.147216095513693
-17.799999999999997      1.7767302798711713       53.70680254582726        15.039809793332987
-17.599999999999998      1.7868276311893374       53.90985293821312        14.955788941981588
-17.4                    1.7882770022063512       54.24660988465648        14.879438020427907
-17.2                    1.7811746661787085       54.717383951164535       14.80804887821511
-17                      1.7508879191393938       55.635287894861705       14.734552588904734
-16.8                    1.7267474400872933       56.28265435710644        14.6705934291502
-16.599999999999998      1.718879403864427        56.49564126951325        14.617988892025862
-16.4                    1.7155261712188887       56.56919005289469        14.570440299776314
-16.2                    1.7135643792864035       56.593271053087115       14.527206994090829
-16                      1.7139104503661005       56.565889780647694       14.487991006479703
-15.799999999999999      1.7171926932535304       56.47386253623963        14.452607363923685
-15.599999999999998      1.7200614918223351       56.42996947383024        14.4178813297515
-15.399999999999999      1.7263567597616134       56.337989352348515       14.383214680493909
-15.2                    1.7338673021149398       56.22502516883695        14.349709173072602
-15                      1.7429992145148674       56.124091747620646       14.316728850837567
-14.799999999999997      1.7549473358343506       56.01561858798178        14.280361011373548
-14.599999999999998      1.770121721079908        55.89299609395259        14.24195758426676
-14.4                    1.7842091724374975       55.85285202606685        14.199728313610288
-14.2                    1.8020757525455595       55.80532907916742        14.15307482866877
-14                      1.8182253665182573       55.87090070580165        14.103247716346829
-13.799999999999997      1.8361257685656076       55.962383358794          14.046077307114672
-13.599999999999998      1.8504910828324677       56.218309382072974       13.981149611536823
-13.399999999999999      1.861648501573214        56.63142698681571        13.902661870112187
-13.2                    1.8661662941036954       57.24988035961968        13.806822322026004
-13.000000000000002      1.879978891858393        57.5342699140726         13.665243388740455
-12.799999999999997      1.9017416751911231       57.52479757535975        13.527683537988644
-12.599999999999998      1.9070399654334016       57.76509350185377        13.425921017736922
-12.4                    1.903055991728576        58.12802731837588        13.338898302222852
-12.2                    1.8915996232468246       58.580766599156874       13.262936144751912
-12                      1.8599920282279472       59.36879243917258        13.19280593399796
-11.799999999999997      1.8369825610066797       59.86950968042284        13.137010096371387
-11.599999999999998      1.8296182987903977       59.975819881956134       13.091382018015898
-11.399999999999999      1.828143543476833        59.917875308807865       13.05508965062059
-11.2                    1.8255531358702006       59.85026145351958        13.024463349024737
-11                      1.8249547544617204       59.71772521511184        13.0010244700978
-10.799999999999997      1.8245805593516542       59.56274780629729        12.982662787910986
-10.599999999999998      1.8236636031205813       59.4216414733229         12.968310748459789
-10.4                    1.8216624893563111       59.30188931732183        12.957632423970505
-10.2                    1.8179036171671559       59.1994094189262         12.948909446094698
-10                      1.8148324921148549       59.112895729924915       12.940303010762015
-9.799999999999997       1.8114766811512204       59.05975502244527        12.928912108847857
-9.599999999999998       1.808217655594708        59.04956693640237        12.915184803047262
-9.399999999999999       1.8060393117307834       59.07506594066939        12.897479251216957
-9.2                     1.8056263863543929       59.12400922949689        12.876389157526372
-9.000000000000002       1.8064302415995008       59.23090253594319        12.85021967677363
-8.799999999999997       1.8110880394025541       59.37416272988871        12.813939513334885
-8.599999999999998       1.8182934867989813       59.5758153641779         12.770336047150199
-8.4                     1.826688327120849        59.85060695995123        12.712647851753841
-8.2                     1.8355093297472462       60.24541199040728        12.63625772743743
-8                       1.8598680243459023       60.42176196375743        12.514060778012707
-7.799999999999997       1.8945591366818637       60.34761348423941        12.371649726555011
-7.600000000000001       1.9100749286389427       60.5426091473427         12.26045673329483
-7.399999999999999       1.9160911839721693       60.84297837065752        12.15801469599357
-7.199999999999996       1.9107000637752427       61.271888303092          12.062721146453923
-7                       1.8839253807348424       62.00808397586605        11.962547925905831
-6.799999999999997       1.8531781271830503       62.731469806294974       11.870989885803795
-6.600000000000001       1.8460460485347092       62.987436283021616       11.80232618997054
-6.399999999999999       1.8425048869922713       63.1190157073376         11.743382489914813
-6.199999999999996       1.8415246044604057       63.17433902814956        11.692262993464848
-6                       1.8445866951445173       63.15445331753769        11.647024083975182
-5.799999999999997       1.8478856330829587       63.12120149515647        11.606775590107214
-5.600000000000001       1.8531684067950425       63.05941616874014        11.570447183877668
-5.399999999999999       1.8597365862633521       62.97647106859262        11.537441856751817
-5.199999999999996       1.8661405483448212       62.90517333839873        11.503967682557926
-5                       1.8722543807424936       62.84903800530027        11.47235570142897
-4.799999999999997       1.877924677664391        62.81743489577525        11.44107200496279
-4.600000000000001       1.885110884310938        62.77468999611942        11.409140789688314
-4.399999999999999       1.8904896375456013       62.78087375323885        11.37423625348184
-4.199999999999996       1.8968865992608208       62.799594414332404       11.339104384035293
-4                       1.9024097155613982       62.88565590222408        11.297960468799376
-3.7999999999999976      1.9058968060117827       63.05336968888323        11.25105478028333
-3.6000000000000014      1.9088752187724614       63.30059539467198        11.194959635036593
-3.3999999999999986      1.9125163662959117       63.60395545438047        11.127910083631448
-3.1999999999999957      1.91279971485592         64.03964284427485        11.041748667567127
-3                       1.9240729246378478       64.28402085452102        10.907114622644764
-2.799999999999997       1.9399668759597832       64.2392412747206         10.773905844346867
-2.6000000000000014      1.9343999560263372       64.43404336167428        10.685979607848433
-2.3999999999999986      1.9180074492203345       64.73688453562447        10.615555555209063
-2.1999999999999957      1.8933045139672622       65.1331278802602         10.55561018549541
-2                       1.8465044564150752       65.83154890055519        10.505065918450297
-1.7999999999999972      1.804841845396307        66.33857616255332        10.462961586471188
-1.5999999999999945      1.7817759890314313       66.51325841804075        10.424370050072788
-1.3999999999999986      1.766338289176698        66.55660805238368        10.389704704642849
-1.1999999999999957      1.751987374466405        66.58931662632052        10.357380745239208
-1                       1.7412402482256961       66.57745377655382        10.329848014078472
-0.7999999999999973      1.7330856662386185       66.54546710147318        10.30507386022153
-0.5999999999999943      1.7276587676488144       66.48129200310655        10.284276165936609
-0.39999999999999863     1.7264610585719613       66.37654024548323        10.264803567922764
-0.19999999999999576     1.7263290321829292       66.27803767907712        10.248746291865688
0                        1.7304300489368862       66.13748986303658        10.235064640736624
0.20000000000000284      1.736226645993218        66.01823619391658        10.223432855592831
0.4000000000000057       1.7443975879006113       65.89262349864559        10.2136697998271
0.6000000000000014       1.7513779089636166       65.82677614929732        10.203863063055266
0.8000000000000043       1.7583567957863664       65.80466610773843        10.191555591117615
1                        1.7657318675132583       65.80553084708734        10.175834105857989
1.2000000000000028       1.7739187039520148       65.83651395930089        10.155264937048576
1.4000000000000057       1.7824903344830765       65.91726570047463        10.127592489508773
1.6000000000000014       1.793476837638731        66.0395962967443         10.08945011175574
1.8000000000000043       1.8019505942762282       66.26361423828803        10.039772453839241
2                        1.8176339466155622       66.3826688882229         9.962977877198714
2.200000000000003        1.8552042137952804       66.14507399699659        9.863328661431352
2.4000000000000057       1.8705331682182436       66.19870280600989        9.790106546685172
2.6000000000000014       1.8741410508952305       66.39102671729157        9.722619654222683
2.8000000000000043       1.8660523047069564       66.7126107343643         9.66158778057928
3                        1.8309176208258802       67.40284038759698        9.599553773512298
3.200000000000003        1.8053059256307167       67.90108219016261        9.546273896635878
3.4000000000000057       1.796415776643293        68.0900414261751         9.502966693788323
3.6000000000000014       1.792650990217388        68.19394959171302        9.466431558254177
3.8000000000000043       1.7945104989506848       68.20995119601753        9.434350574771084
4                        1.7990126929569628       68.19237387393416        9.405102504875188
4.200000000000003        1.8034254610393472       68.18345804734435        9.378168740774186
4.400000000000006        1.8094981778736345       68.1610567012834         9.350022870695293
4.600000000000001        1.8175090424946607       68.1225874159527         9.32157556283039
4.800000000000005        1.8266931936480897       68.08070262147618        9.293293207446185
5                        1.8346856366175468       68.07618155487488        9.262068227823608
5.200000000000003        1.844020605659716        68.07441828150331        9.228415991361711
5.400000000000006        1.8550862061736297       68.08899890528187        9.190715905613148
5.600000000000001        1.8635246553609865       68.17710386242003        9.149124530795271
5.800000000000005        1.8722390774296356       68.28437797102204        9.099323447629617
6                        1.8819526079032076       68.41852426504427        9.043233993057752
6.200000000000003        1.8917866451721477       68.61350353718156        8.979061765475457
6.400000000000006        1.89918919822324         68.91188881534931        8.905898687313623
6.600000000000001        1.9079507035721341       69.30714233590155        8.818208228151105
6.800000000000005        1.9193990205609153       69.80905184337527        8.708676533403569
7                        1.9349629252925016       70.21475740315866        8.563081610347748
7.200000000000003        1.9636668467104503       70.21624228741766        8.400462235024843
7.400000000000006        1.9675165803566679       70.41522323290846        8.293977707238437
7.600000000000001        1.9609052902423374       70.6669635105573         8.21007589430184
7.800000000000005        1.944881594954035        70.97655280075091        8.139338642702667
8                        1.9083653494660233       71.50877480204959        8.078104347502384
8.200000000000003        1.8789505220423415       71.8701098831496         8.029884843200586
8.400000000000006        1.867422912549312        71.9131116597886         7.9919811352305175
8.600000000000001        1.8585588067762717       71.88895563106193        7.961654051783523
8.800000000000004        1.8506384462594068       71.83780750731499        7.938821894353556
9.000000000000002        1.8436650744502114       71.75423142923596        7.921835192767443
9.200000000000003        1.8373162131758038       71.66485693039607        7.9079417354132895
9.400000000000006        1.8308043758558563       71.58691822647411        7.896036011606298
9.600000000000001        1.824549514640353        71.53293838299456        7.8853853308011095
9.800000000000004        1.8199084365826008       71.48792543255034        7.873226121872889
10                       1.8178027896595264       71.44653425335544        7.8606116701187485
10.200000000000003       1.8173279708832821       71.43312607737612        7.844193928211763
10.400000000000006       1.8186662438220798       71.45027150174886        7.82368326280818
10.600000000000001       1.8222968189062614       71.47399979429807        7.800236828072697
10.800000000000004       1.8256407128821774       71.5296442435458         7.771711393206773
11                       1.8287249359151394       71.62055187864306        7.740237074589703
11.200000000000003       1.8339919918855865       71.726406902519          7.69980513774671
11.400000000000006       1.8385201046978383       71.89804474807484        7.652998038251704
11.600000000000001       1.8456176679602176       72.09902054946019        7.592440492878863
11.800000000000004       1.8567048880978287       72.33144280965625        7.512358586368153
12                       1.884532065810798        72.40333092792584        7.391932209901546
12.200000000000003       1.9217467577791834       72.30093772013215        7.255425250891991
12.400000000000006       1.9375350250139958       72.39766230196136        7.144720201301856
12.600000000000001       1.9422960448541862       72.58866940150769        7.045679014295436
12.800000000000004       1.9358085017217532       72.87184055462308        6.948098545028853
13.000000000000002       1.904403640631693        73.40885227331424        6.84373232948908
13.200000000000003       1.879196022878996        73.82196121614811        6.754733303801047
13.400000000000006       1.8736516642021939       73.94821191412976        6.686667930541802
13.600000000000001       1.874900584082151        73.96348725885723        6.630699433946385
13.800000000000004       1.8793516513449282       73.9257101112149         6.582941209832323
14                       1.885403888743116        73.8516889906376         6.5390505949486775
14.200000000000003       1.889876851916584        73.782342156515          6.500439623738812
14.400000000000006       1.8945714758826253       73.70870800038551        6.464779031174965
14.600000000000001       1.899751530309106        73.64582069286585        6.42983818628409
14.800000000000004       1.9044847020070246       73.60214679406911        6.394709027735734
15                       1.9101610053076317       73.57031965285152        6.358051060686903
15.200000000000003       1.918386401364769        73.53051041507682        6.32193456185921
15.400000000000006       1.9260772964890218       73.52133209739989        6.284076350815185
15.600000000000001       1.935284958423297        73.51525340826663        6.2420261191722295
15.800000000000004       1.943307872219259        73.54148442023418        6.1975984596769695
16                       1.950665615308095        73.59831365789213        6.1464242970672895
16.200000000000003       1.958553579857689        73.68116035424313        6.089442372647794
16.400000000000006       1.9653156235783518       73.82322676518926        6.023939769703424
16.6                     1.9698285451510877       74.05602801731494        5.941824993085048
16.800000000000004       1.9761758123586959       74.35341109422654        5.838914511308946
17                       1.9956320117441735       74.50326465077667        5.681946857803144
17.200000000000003       2.0158857667335934       74.46448467930057        5.525679847638222
17.400000000000006       2.0138561940526527       74.56647427432085        5.421408488872062
17.6                     1.9974776873464277       74.77300360177342        5.337233932585424
17.800000000000004       1.9700198854595987       75.06876372925184        5.265209493327001
18.000000000000004       1.91776784684792         75.60784375572618        5.201924755758329
18.200000000000003       1.8823489714441692       75.9277242925951         5.150233966306883
18.400000000000006       1.8618212919126171       76.04123163091172        5.103935062915893
18.6                     1.847060570893198        76.06165618287453        5.062759562131056
18.800000000000004       1.833745613305578        76.05851530793582        5.025954163969677
19                       1.825242207510042        76.01625722220116        4.992048430094696
19.200000000000003       1.82059487325652         75.9553019024707         4.960718392648154
19.40000000000001        1.8187769283472082       75.88750703000069        4.933359950380196
19.6                     1.8225908785050442       75.79312106308078        4.910720582420298
19.800000000000004       1.8283033402329985       75.70490146211279        4.892170290650035
20                       1.8355676985069982       75.617675332875          4.876253129813992
20.200000000000003       1.8439775624214392       75.54155412759829        4.863960416542145
20.400000000000006       1.8521023433100463       75.4773226386735         4.854733785009516
20.6                     1.860183339694649        75.43359319439328        4.8443313157531165
20.800000000000004       1.8675147541179533       75.41401518831643        4.831236557217257
21                       1.8757907926942545       75.40875396879167        4.8134181493288555
21.200000000000003       1.8847382916493682       75.43102390053431        4.7880828360483125
21.400000000000006       1.894366738784563        75.48790873995297        4.7549696272257185
21.6                     1.9033542370063772       75.59351588678133        4.710949606470164
21.800000000000004       1.912768695831227        75.73809708764051        4.6497606217853615
22                       1.9371857568001407       75.72654797288357        4.549700087483768
22.200000000000003       1.971217089113395        75.58605325089505        4.436303036139475
22.400000000000006       1.9819408748980205       75.64090002410039        4.351597573073525
22.6                     1.9817723686876476       75.76630227443769        4.276200581616354
22.800000000000004       1.9698176926355624       75.98879949068662        4.20712136862236
23                       1.935307436061958        76.42395441735114        4.138640671015795
23.200000000000003       1.9018653630310836       76.80027898325146        4.079920103314807
23.40000000000001        1.889708590843562        76.91702372591124        4.034117481958115