% Model:              Gyroid.mph
% Version:            COMSOL 6.2.0.290
% Date:               Apr 27 2025, 15:52
% Table:              切面数据 - 切面数据
% zp (mm)                速度大小 (m/s)               温度 (degC)                压力 (Pa)
-40                      3.9308166191492346       30.14970341038015        267.52645179176614
-39.8                    4.652193324655867        23.912855742109297       264.3366296861409
-39.6                    4.702735754417702        24.873336098118287       262.7550626730488
-39.4                    4.727831898877815        25.659393902363046       261.57359863202936
-39.2                    4.769848712025252        26.233814351457802       260.5053302011799
-39                      4.825847048419528        26.686814079468444       259.451070604248
-38.800000000000004      4.893893904199071        27.03648912400934        258.3885424453965
-38.6                    4.966795890316007        27.4242570399692         257.28426658378413
-38.4                    5.0516970679335955       27.814534503116196       256.09986582012647
-38.2                    5.143848393471755        28.3811504409214         254.7873508512488
-38                      5.281710425139457        28.79184337986358        253.09621404379212
-37.8                    5.430457577712211        28.712649528255955       251.24815459217635
-37.6                    5.50598847353185         28.982842365569155       249.6958617017041
-37.400000000000006      5.545441478314038        29.378061721488088       248.21609805521902
-37.2                    5.548965581732202        29.898169503027933       246.733993342652
-37                      5.48657077958917         30.805532670840538       245.03804825340015
-36.8                    5.445290018591288        31.380134177862672       243.54012233110967
-36.6                    5.445168247155076        31.47817635192018        242.40463100062533
-36.4                    5.463896282854863        31.526833232280914       241.41930189423604
-36.2                    5.495309784516453        31.565694004209952       240.5139985998943
-36.00000000000001       5.540646421644846        31.536171958312394       239.6975771678681
-35.8                    5.585611125687878        31.51521609175573        238.93411587520026
-35.6                    5.633204704850238        31.467272988628633       238.2084869313154
-35.4                    5.684579536896852        31.395442023337836       237.50775053166538
-35.2                    5.7344719107342765       31.359798073549676       236.8010761320687
-35                      5.792314176904785        31.29715840285639        236.10355706119933
-34.8                    5.849702579085117        31.25827902330905        235.38937869474765
-34.6                    5.909629939406504        31.241111832344384       234.67055344288525
-34.4                    5.978026080290441        31.223618946354158       233.89312261137275
-34.2                    6.051435795310809        31.225226024337854       233.0427392152324
-34                      6.131005255484489        31.259948216691573       232.1273044455245
-33.8                    6.215884665857995        31.326489661240696       231.12377730368297
-33.6                    6.302297787429959        31.48604907098966        229.936535401998
-33.4                    6.384602845326011        31.810658777792046       228.59700691361618
-33.2                    6.470873987077202        32.34047876569669        227.03087669047363
-33                      6.559075071644742        33.11420046417142        224.90771815992701
-32.8                    6.680454566959991        33.173120125119965       222.5886468805087
-32.6                    6.71767321656371         33.50089245895747        221.0373516777447
-32.4                    6.713993047281797        33.89820170854409        219.80287791639415
-32.2                    6.68260654229935         34.34887784400549        218.7994441160325
-32                      6.5725070746959195       35.193700064387315       218.03391855064237
-31.799999999999994      6.510936054634565        35.37136663551813        217.45752122406992
-31.6                    6.4842506400120685       35.29559805800465        216.99025660503978
-31.4                    6.471182936032645        35.156301286880314       216.62820379930093
-31.2                    6.458136866168043        35.00991801026366        216.3795978434322
-31                      6.442762041799687        34.8382920095434         216.22559690491468
-30.799999999999997      6.425892318295104        34.67532696038232        216.1712840573371
-30.6                    6.406745971683765        34.54551814428964        216.16645476902036
-30.4                    6.390931316334401        34.424598913520036       216.24356777628992
-30.200000000000003      6.377121712870757        34.342587732785915       216.32683538483954
-30                      6.369354087392528        34.25724369222477        216.46962896623538
-29.799999999999997      6.365797547107892        34.18655141801556        216.5937339949848
-29.6                    6.366724257452633        34.12552034827176        216.71230735724566
-29.4                    6.369667640301088        34.11336913969691        216.7967877614307
-29.2                    6.377295126218596        34.100306487826394       216.8450383739699
-29                      6.385891196943974        34.12681090410506        216.77931132886357
-28.8                    6.398597985073359        34.19054220231313        216.6016247255242
-28.6                    6.416767057358504        34.317507821589054       216.2955447880329
-28.4                    6.434361615932129        34.57228926802177        215.77117189600253
-28.2                    6.460480574738716        34.97231325297922        214.95738352345782
-28                      6.507163074141943        35.43541331467574        213.42732966940662
-27.799999999999997      6.581175348188652        35.50683760258205        211.83129644202066
-27.6                    6.60522874245847         35.819210756843354       210.68727591071433
-27.400000000000002      6.60138230085291         36.21089657578061        209.70293706187476
-27.2                    6.573976185229562        36.668282090889065       208.79064776531192
-27                      6.4745403263069905       37.46960457441007        207.93530635047586
-26.799999999999997      6.350601914900128        38.158372932959956       207.18485115950025
-26.6                    6.310479242179786        38.21727336542723        206.6188275097842
-26.4                    6.2971018104250485       38.20870583045883        206.14503454172782
-26.200000000000003      6.298505269390604        38.153485760298395       205.73838851280988
-26.000000000000004      6.301359659020728        38.087404600540594       205.3857073184875
-25.799999999999997      6.313748639165737        37.970073657056496       205.05360613042978
-25.6                    6.326284494660546        37.88399879989797        204.74749211278657
-25.4                    6.338289359211461        37.81465965138454        204.44420437274474
-25.2                    6.355389575012512        37.7398790976784         204.12589945355214
-25                      6.376844980097895        37.68162774835977        203.784528225176
-24.8                    6.40160084473766         37.65139855967068        203.4180792835552
-24.6                    6.43488681191911         37.62901501109625        202.99671746160948
-24.4                    6.472671907672847        37.64071876966515        202.5476638594105
-24.2                    6.517547838994006        37.67881539234251        202.039623608322
-24                      6.567485956074865        37.77480470687938        201.46135526410484
-23.8                    6.61324956794823         37.95507325838188        200.80785227282874
-23.599999999999998      6.660288976608904        38.16389281155629        200.04408991045776
-23.400000000000002      6.701134852142856        38.50515762300775        199.17338293963778
-23.2                    6.737940367115817        39.020342660044406       198.0660963431154
-23                      6.779994862148619        39.57744443577257        196.50872220105683
-22.8                    6.879512766793646        39.495036225877605       194.7307300122497
-22.599999999999998      6.8882604142888795       39.77344041365378        193.46229840184463
-22.4                    6.865032987269184        40.07930407503641        192.395658914886
-22.2                    6.804612354426962        40.48433965983312        191.4670045643471
-22                      6.668869786563669        41.20250331831075        190.72413442672496
-21.8                    6.562188710031747        41.4817516064607         190.11203132755662
-21.599999999999998      6.502155793365991        41.425114329856754       189.56810435111973
-21.4                    6.45275804916922         41.350982622728786       189.09737471766985
-21.2                    6.410220612886778        41.2630909433694         188.69497697282983
-21                      6.373732544606437        41.171369619389075       188.3724093969343
-20.8                    6.348207303868617        41.060947464802126       188.11923896729493
-20.599999999999998      6.330451583655303        40.95794456851451        187.92182903349484
-20.4                    6.3241180458973          40.82975401520642        187.79468967218142
-20.2                    6.325045850973086        40.72474529524657        187.69289734583427
-20                      6.337140043863613        40.60235652507165        187.61878919272326
-19.799999999999997      6.352510380437866        40.49692860691964        187.55628211074892
-19.599999999999998      6.369124808319579        40.41323662895425        187.50278465140846
-19.400000000000002      6.390366997203204        40.33711749116449        187.44025376121542
-19.2                    6.4161854893418155       40.2801211169509         187.34051784684345
-19                      6.441733897638269        40.25086557698917        187.19090671947566
-18.799999999999997      6.475712447641314        40.23991787172547        186.98248601136967
-18.599999999999998      6.502529604401619        40.350416817840454       186.67407602788882
-18.4                    6.530578031714907        40.53393951246592        186.21007641795157
-18.2                    6.56652836393709         40.8292349386125         185.51691043667307
-18.000000000000004      6.655393289274911        40.97618651208278        184.3473691550546
-17.799999999999997      6.78554711633114         40.76935020223072        182.86210720107312
-17.599999999999998      6.830962814668347        40.90892344521434        181.7862437899436
-17.4                    6.842060125033375        41.15440248819924        180.8502118049171
-17.2                    6.819021885231853        41.517070794505834       179.99350317388863
-17                      6.705211039359927        42.31204493496441        179.13702081878796
-16.8                    6.61154179414495         42.63729214470044        178.42170274812253
-16.599999999999998      6.57486646287141         42.66219897429102        177.82313751030046
-16.4                    6.560669436522263        42.66234739121009        177.2866888749005
-16.2                    6.558367986976616        42.66899036452383        176.7980419471534
-16                      6.569195564054122        42.6493648168625         176.34916560730457
-15.799999999999999      6.592410759775071        42.582798456871224       175.94969884614292
-15.599999999999998      6.612892733674666        42.57204118367814        175.55518527712965
-15.399999999999999      6.644581709162677        42.513014280810054       175.15071758721825
-15.2                    6.676963673724479        42.44678438496437        174.75686260667584
-15                      6.714780582730095        42.376670711090135       174.36474208718795
-14.799999999999997      6.761777940701579        42.28590740216327        173.91992792847446
-14.599999999999998      6.819600803942839        42.172920940304955       173.4470448974758
-14.4                    6.873359146198755        42.1379272357867         172.91785689093652
-14.2                    6.942308005818903        42.076863877652436       172.31562001412215
-14                      7.0078912053391615       42.10718688555044        171.66155977821953
-13.799999999999997      7.081354712729009        42.12860410445453        170.9112666786897
-13.599999999999998      7.146846472703229        42.262628469063415       170.05932657334012
-13.399999999999999      7.202784559075069        42.518255523441866       169.0182428010557
-13.2                    7.240947820702324        43.01620173143694        167.7279181198702
-13.000000000000002      7.282541930643779        43.4478341839856         165.7512054777023
-12.799999999999997      7.36335989265009         43.42537553516862        163.81430061441714
-12.599999999999998      7.386837874637106        43.603111880386415       162.41624389453233
-12.4                    7.378804699269635        43.84746199177432        161.25821169016763
-12.2                    7.341078441099137        44.14798265572516        160.27288427825889
-12                      7.231474822312575        44.73024255560853        159.38772680330692
-11.799999999999997      7.154667414350077        44.91042103811084        158.71194373500273
-11.599999999999998      7.1210546090568485       44.81455374355214        158.17266979846448
-11.399999999999999      7.100013251503588        44.67834853738942        157.75782058302494
-11.2                    7.071856423561368        44.6110793246026         157.41228687108
-11                      7.050292912400271        44.51074654206545        157.16090727126863
-10.799999999999997      7.029347451915854        44.41856827394957        156.96484980065694
-10.599999999999998      7.008329069693375        44.34211880322043        156.8157909177912
-10.4                    6.987994006587401        44.281066646216736       156.70503941132625
-10.2                    6.965316835083801        44.245748696679236       156.61337689990754
-10                      6.948328729521897        44.22104834574038        156.52479057186912
-9.799999999999997       6.934931092050073        44.226447744058255       156.3918037018586
-9.599999999999998       6.926248547737668        44.25593700901512        156.2272162600575
-9.399999999999999       6.92300027938846         44.3148331331077         156.01455448813482
-9.2                     6.924363000716245        44.402945072377385       155.76343817710142
-9.000000000000002       6.927120407732361        44.539076510431975       155.44412338489903
-8.799999999999997       6.941886917855871        44.696381622907964       154.99066567538236
-8.599999999999998       6.96426648252269         44.90953792003325        154.43990068145746
-8.4                     6.991724751675445        45.18331887418997        153.69750208702726
-8.2                     7.033780037570365        45.54168969831539        152.69549049893993
-8                       7.140150598223919        45.75474059974269        151.04797900853535
-7.799999999999997       7.277525952172154        45.67046692259247        149.1367508095676
-7.600000000000001       7.33696547758395         45.83963462189976        147.68875923626734
-7.399999999999999       7.357273911076793        46.10870777816931        146.36327859129915
-7.199999999999996       7.333460901899208        46.49378960941746        145.13559128169112
-7                       7.227810334531646        47.20042689127367        143.82781531573744
-6.799999999999997       7.109984270679798        47.82997461847011        142.63695746109644
-6.600000000000001       7.095213601129024        47.90942192180403        141.7848514897395
-6.399999999999999       7.0922576022086          47.9166355180022         141.077654179361
-6.199999999999996       7.09795260956504         47.881346325434194       140.48908050506918
-6                       7.116760573460427        47.787086994689915       139.99543036196312
-5.799999999999997       7.135147124690522        47.698722086697295       139.57141639977976
-5.600000000000001       7.154862790724046        47.60100979354084        139.19979965037584
-5.399999999999999       7.177009321719927        47.48820341385499        138.86796087544266
-5.199999999999996       7.19733963339163         47.40042906478761        138.525285691341
-5                       7.217821419718323        47.3301300994711         138.19850241066348
-4.799999999999997       7.240877840031726        47.279788612373935       137.86302451276612
-4.600000000000001       7.2707161049797          47.214008336753864       137.50739159374686
-4.399999999999999       7.29517047055286         47.19384583136028        137.10612925041102
-4.199999999999996       7.328082787320246        47.15989319704335        136.6959060413527
-4                       7.359631557844293        47.17069147632997        136.20751134161173
-3.7999999999999976      7.385417197195349        47.24429902533882        135.64895073675007
-3.6000000000000014      7.4090180314113185       47.37771820741163        134.9702262130433
-3.3999999999999986      7.43234075580751         47.56589487609901        134.13202496312735
-3.1999999999999957      7.436653381032644        47.965343819685515       133.02047696086427
-3                       7.472231502575721        48.319146027938224       131.2091047169789
-2.799999999999997       7.531193231431272        48.23835566204653        129.41094631771665
-2.6000000000000014      7.510542717840255        48.371970091336344       128.25522001333405
-2.3999999999999986      7.449259594269228        48.590818986398915       127.36042664736075
-2.1999999999999957      7.357657148849557        48.851402328198866       126.62154264702306
-2                       7.1832410655768415       49.3461424261865         126.03260285133612
-1.7999999999999972      7.019964340257281        49.506855990305205       125.54181094630042
-1.5999999999999945      6.919805601408022        49.50324584273964        125.08477074902038
-1.3999999999999986      6.852411678036241        49.47256932405814        124.6878265974681
-1.1999999999999957      6.798016666099606        49.47299776199887        124.32702719227433
-1                       6.762536983092969        49.428770031712354       124.04102871202593
-0.7999999999999973      6.739129842880859        49.38877654188639        123.79128675220396
-0.5999999999999943      6.723546358776538        49.33774972709391        123.60052484783274
-0.39999999999999863     6.722397261744253        49.255487461711915       123.42258129234014
-0.19999999999999576     6.724884386323761        49.19704421807787        123.2880822572375
0                        6.7404431489693755       49.11041511357179        123.1763464477745
0.20000000000000284      6.75917484216803         49.05670428407826        123.07978583268942
0.4000000000000057       6.7847846281099          48.98607798726133        122.9920314894424
0.6000000000000014       6.806792569026434        48.961723629980646       122.8866255474523
0.8000000000000043       6.829003333934114        48.96903511927472        122.73737914329922
1                        6.854920857597109        48.99458691893203        122.53380142006938
1.2000000000000028       6.887352439641278        49.02654851057587        122.25334542032226
1.4000000000000057       6.923239346332762        49.10375846124704        121.8712752493156
1.6000000000000014       6.981290384072126        49.17120784900871        121.35112438594197
1.8000000000000043       7.043752975327217        49.334427309598865       120.67709839494886
2                        7.100099786756017        49.53097321435744        119.63916296935355
2.200000000000003        7.225138011707872        49.29059463299239        118.32837117630989
2.4000000000000057       7.268716672637704        49.3570781641379         117.40850103763728
2.6000000000000014       7.271179401576219        49.5678474665601         116.59438798894662
2.8000000000000043       7.231844456840737        49.919002062108625       115.87696249132901
3                        7.094167512803802        50.68038590305849        115.17689885981684
3.200000000000003        6.994088499054681        51.12879754956058        114.58633516024435
3.4000000000000057       6.952520962330876        51.24114422953476        114.11597920917208
3.6000000000000014       6.931761471450278        51.2834279738472         113.73827234669845
3.8000000000000043       6.935123615240334        51.2432379414904         113.42413108506734
4                        6.949235161007618        51.186205411327386       113.14407575555661
4.200000000000003        6.962458698307017        51.14926648634527        112.89145505274278
4.400000000000006        6.9838413884533335       51.111569153588384       112.6196042148789
4.600000000000001        7.012176148862734        51.06507886555564        112.34517646537796
4.800000000000005        7.047223868114444        51.00768091871931        112.07652674518846
5                        7.0765226294938355       50.9945066138569         111.76246211843865
5.200000000000003        7.112296579256764        50.97589435391669        111.40984462022936
5.400000000000006        7.15727486807928         50.944202166559386       111.00887007619463
5.600000000000001        7.192727637006792        50.96910306303088        110.56041525457543
5.800000000000005        7.22868496064785         51.00724284976763        109.99489419291068
6                        7.266240412301228        51.06253469813213        109.35149548056785
6.200000000000003        7.301708756244048        51.17412936118678        108.58819177724104
6.400000000000006        7.327938224299701        51.3879875600968         107.68779156204835
6.600000000000001        7.359203036843661        51.69754318039431        106.57957955571202
6.800000000000005        7.408399559880757        52.12449664967144        105.15130863344416
7                        7.468468259141223        52.68921236005326        103.19159971937141
7.200000000000003        7.57616370294065         52.67761793184366        100.98408954777003
7.400000000000006        7.593102317040524        52.875731428731406       99.56683340367317
7.600000000000001        7.573233252034485        53.10577876959642        98.46323440270486
7.800000000000005        7.514910463912628        53.37600108678014        97.56484394073689
8                        7.376830707862536        53.88531212802362        96.84432955606293
8.200000000000003        7.262114099856582        54.08048163103748        96.3140165810256
8.400000000000006        7.196310729882775        54.02020586122152        95.91029828486292
8.600000000000001        7.134851058001775        53.96665398631353        95.6120202248782
8.800000000000004        7.077093116872069        53.92488461446581        95.41291481521384
9.000000000000002        7.025264506833707        53.87554686560132        95.28049411385012
9.200000000000003        6.983328296730988        53.83069747742078        95.17125269660309
9.400000000000006        6.949297012768096        53.80075729072651        95.06760789538707
9.600000000000001        6.921647661629024        53.78721754957998        94.9816101519465
9.800000000000004        6.900913177387617        53.78434845541257        94.87127408144157
10                       6.891596713737356        53.77979106655677        94.75796268657824
10.200000000000003       6.887709346967275        53.801430734719105       94.59398437017084
10.400000000000006       6.887597677744654        53.85487349605575        94.37843508682516
10.600000000000001       6.896144857365672        53.90207017840372        94.12078693503896
10.800000000000004       6.9032598213734175       53.9843961179545         93.79307101658021
11                       6.908789984418651        54.104021955323596       93.42898857956042
11.200000000000003       6.923692421825131        54.236836540185          92.93271472596886
11.400000000000006       6.937529658110841        54.46112844707013        92.3359168510056
11.600000000000001       6.96096513917404         54.73763810574947        91.53819974810392
11.800000000000004       7.001783317061777        55.070252625466146       90.4592981067628
12                       7.106417765438265        55.25044959155561        88.7980979345085
12.200000000000003       7.244885237703272        55.20972507233139        86.90906511762603
12.400000000000006       7.303145745353416        55.37184682187103        85.40234448913816
12.600000000000001       7.320252000461953        55.62310190861153        84.06645478601845
12.800000000000004       7.295161527426597        55.9728238788386         82.75896006414601
13.000000000000002       7.1760999032972625       56.614424489729316       81.34544583899671
13.200000000000003       7.0865396078786045       57.02169105027635        80.13846156913782
13.400000000000006       7.085381820385227        57.04456106559566        79.25528966956517
13.600000000000001       7.107082441411557        56.99652041267901        78.55800380160018
13.800000000000004       7.135187047779456        56.92738684434839        77.97943191130852
14                       7.164355536481908        56.833828336643094       77.45585797473859
14.200000000000003       7.188752872235092        56.75326338897197        76.99426749595371
14.400000000000006       7.213353744628798        56.67688918267205        76.57186238442695
14.600000000000001       7.2380856349809575       56.609664415698745       76.15489761983558
14.800000000000004       7.260455240380169        56.562108744253024       75.72762747948691
15                       7.28511071291108         56.51912526763706        75.2710551862329
15.200000000000003       7.319683369009193        56.45976522191011        74.80761456272546
15.400000000000006       7.351135505497942        56.44137899225548        74.30918964493634
15.600000000000001       7.388738068205881        56.40872546000412        73.73955686750148
15.800000000000004       7.423695776455273        56.40364652329707        73.12808409321126
16                       7.457211890532311        56.425624251406916       72.40876221978456
16.200000000000003       7.493337846545767        56.467961636920826       71.61168142762757
16.400000000000006       7.528526537690547        56.55795319758498        70.69593073549407
16.6                     7.558333823288764        56.74567550520987        69.54732644690064
16.800000000000004       7.59313093325872         57.036440029926716       68.10433665168529
17                       7.665409003720533        57.33172656467002        65.89583144783245
17.200000000000003       7.744102336500213        57.289248591361144       63.70103094595716
17.400000000000006       7.740800588292775        57.37263240427739        62.23192842739576
17.6                     7.686993653491847        57.545648541904725       61.037595139031424
17.800000000000004       7.59688473319044         57.76514745226887        60.01983102945291
18.000000000000004       7.411005237146844        58.244591248138526       59.14524312262257
18.200000000000003       7.287600432367124        58.34105537643374        58.4555340927186
18.400000000000006       7.214061971611665        58.32263709901197        57.85641138448311
18.6                     7.16551900060727         58.278372782900526       57.34765424463656
18.800000000000004       7.128564204988918        58.241253856912856       56.90960857512652
19                       7.103671565505962        58.17832620977896        56.522076331875056
19.200000000000003       7.089799192881927        58.12466176417982        56.178508089598985
19.40000000000001        7.080680502143415        58.08307485769823        55.89552612838098
19.6                     7.085657016873014        58.00870016214405        55.67044658722996
19.800000000000004       7.095787382755654        57.94840121626822        55.46690706427272
20                       7.1105223299016345       57.89264347624098        55.26649105971478
20.200000000000003       7.131435696552272        57.84702287506751        55.08232026893744
20.400000000000006       7.151553552306201        57.81921512073158        54.90176911966861
20.6                     7.172742920611831        57.8112815241887         54.680115919859894
20.800000000000004       7.1939017866961095       57.823393307005524       54.40695215503053
21                       7.220254988001339        57.83683894084818        54.06281315816427
21.200000000000003       7.252916597150476        57.86124211450446        53.62432124331891
21.400000000000006       7.2945736792064695       57.89939167329871        53.083425865671465
21.6                     7.343659096362343        57.967544707635085       52.40370820082319
21.800000000000004       7.406233373188327        58.06972470151199        51.515847828473014
22                       7.499332411006554        58.06615594049407        50.11496130616497
22.200000000000003       7.622704864713221        57.87479698635811        48.62551920644402
22.400000000000006       7.6587323574421635       57.93883778537358        47.57122002868692
22.6                     7.657357801989821        58.08526861386386        46.670065275933354
22.800000000000004       7.61592980189006         58.35158484210665        45.872476966859544
23                       7.490160569834301        58.89910065732446        45.106363264460306
23.200000000000003       7.376474281154593        59.278070578185925       44.493867252723206
23.40000000000001        7.335786642861999        59.32807805781954        44.03055011605341