% Model:              Gyroid2-0.5.mph
% Version:            COMSOL 6.2.0.290
% Date:               Apr 30 2025, 21:29
% Table:              切面 - 切面
% zp (mm)                速度大小 (m/s)               温度 (degC)                压力 (Pa)
-40                      4.5        20       499.78072282363814
-39.8                    4.674024628663131        26.436885807048565       495.3532910527627
-39.6                    4.963033210735709        27.558382663409617       490.5773090292635
-39.4                    5.192727887370708        28.574316450091313       486.3594610938988
-39.2                    5.375620504517059        29.55067911220394        482.7565901715828
-39                      5.530776174037779        30.555453472069274       479.4677220817964
-38.800000000000004      5.718063714765939        31.022541494999793       476.1181370639966
-38.6                    5.804583499528119        31.685770692573108       473.42869733115293
-38.4                    5.788503070425605        32.60514269561432        470.8196248833715
-38.2                    5.830761689600446        32.934580100740504       468.79799673273465
-38                      5.904954852647954        33.08786661666809        467.11925485070515
-37.8                    5.990851124698432        33.14467170614119        465.63216973198934
-37.6                    6.088764492979622        33.141816665234145       464.3076078640742
-37.400000000000006      6.181626855796161        33.134339820073755       463.0690915331575
-37.2                    6.270574285766307        33.12660716564026        461.8627050650803
-37                      6.345121880704573        33.18001628378772        460.6224553903265
-36.8                    6.4002761272139965       33.30970520945113        459.3704772786578
-36.6                    6.4372888242306185       33.53437006319158        457.9635852020317
-36.4                    6.544864967097726        33.37032292745715        456.3946833193601
-36.2                    6.567931793337646        33.567819510236504       454.6854031784745
-36.00000000000001       6.497821398107219        34.07703326936242        452.70827313882035
-35.8                    6.501330007034168        34.281143730219696       450.92326662413694
-35.6                    6.541155352058528        34.24001345204777        449.3183267395606
-35.4                    6.582605509763938        34.260401551466494       447.73742230245966
-35.2                    6.635077826981226        34.29642037993164        446.18705381348934
-35                      6.691679563311353        34.394635404894395       444.5902805298646
-34.8                    6.754525359832428        34.50036321271072        442.9299705327129
-34.6                    6.809921602017603        34.71576923474023        441.162311179614
-34.4                    6.874157160820424        34.999647627414056       439.20373937849706
-34.2                    6.925473454621772        35.45909421635655        437.0481563712132
-34                      6.980083612945067        36.0967791460759         434.34428640883385
-33.8                    7.118762911706772        36.21851437737202        431.0410086964554
-33.6                    7.143644489579868        36.51630267614867        428.9049572556561
-33.4                    7.069140198481545        36.965753705176716       427.5074706379543
-33.2                    7.067724469617992        37.00784349812631        426.27709388282267
-33                      7.111305667190316        36.97010270919055        425.19548165235494
-32.8                    7.160333855000933        36.958725866268836       424.30805270048796
-32.6                    7.2184272060736525       36.899018905735616       423.5423292071744
-32.4                    7.26268795635973         36.888294829518934       422.8544101292694
-32.2                    7.297299382143739        36.931882173229056       422.24728222635275
-32                      7.3167771467342275       37.05859167574718        421.56926442090685
-31.799999999999994      7.314803584507965        37.293798096889866       420.7824478132514
-31.6                    7.284296905328674        37.734709913010875       419.80812389075356
-31.4                    7.348688783777349        37.61238054031816        418.4194446549513
-31.2                    7.330771178631352        37.72073513950407        417.61517355059465
-31                      7.209666018838639        38.150124449729475       417.1724290677763
-30.799999999999997      7.1401747081155715       38.13059910133243        416.86797808473847
-30.6                    7.105210531882995        37.97580120782244        416.56752260667133
-30.4                    7.0777678482485396       37.84975500533993        416.3371852377233
-30.200000000000003      7.048777680840806        37.809477894303605       415.9962336495477
-30                      7.035566521120108        37.77802497131259        415.6485388157542
-29.799999999999997      7.017603159566281        37.80934769697341        415.17689263658264
-29.6                    7.002708744965435        37.9258858193982         414.553336220839
-29.4                    6.989575496604973        38.117997260243975       413.804993648995
-29.2                    6.97918853675562         38.44611680944278        412.69161520828067
-29                      6.96020434504719         39.00451350357412        411.12435664232703
-28.8                    7.020497739722692        39.23983956865454        408.66278249504336
-28.6                    6.996827564633568        39.652684150889485       406.9030349699467
-28.4                    6.87894570293294         40.31774982303675        405.4965545075543
-28.2                    6.856322163763365        40.4994173799534         404.3249564173486
-28                      6.879221627992687        40.58617829905261        403.267459054205
-27.799999999999997      6.92028897236413         40.66042135604837        402.2826565648417
-27.6                    6.967805723934104        40.730595197043456       401.37956502901795
-27.400000000000002      7.005582963235052        40.8595149846199         400.4231991837113
-27.2                    7.0532975239627484       40.97303839440964        399.4027830501974
-27                      7.098706076593314        41.13573764189356        398.26599613624325
-26.799999999999997      7.140004031505161        41.378232147608436       396.95849010917306
-26.6                    7.1805218714552606       41.63981258873599        395.4684037969335
-26.4                    7.290516657908776        41.47633705804456        393.5481073296874
-26.200000000000003      7.279991606393823        41.718008390206386       391.8507969074386
-26.000000000000004      7.166085958977435        42.30511163155575        390.0504053271693
-25.799999999999997      7.125468165515912        42.54223583190324        388.56461330021483
-25.6                    7.138069971052061        42.589184314804875       387.2350717804581
-25.4                    7.171098354187101        42.65411037863905        385.988872833053
-25.2                    7.212768312370126        42.72733934500797        384.75208752809783
-25                      7.2617147508024615       42.79309468877743        383.5399684062114
-24.8                    7.309844147935668        42.882889977985656       382.2898305836125
-24.6                    7.358672074560933        43.03361762800807        380.93761585041153
-24.4                    7.398329776934061        43.27963656296505        379.4444588685979
-24.2                    7.428098528978794        43.69102109778262        377.59763772799255
-24                      7.4400902942664064       44.21958626603314        375.17556988058965
-23.8                    7.539086551556294        44.24918231915117        372.0339133402133
-23.599999999999998      7.520823863933552        44.50891755263882        370.03496374175165
-23.400000000000002      7.373706576967764        45.02694515087853        368.734497589591
-23.2                    7.313884583614422        45.14343918035653        367.55551700580907
-23                      7.296870374153162        45.20215861820782        366.43225098485686
-22.8                    7.297668983670545        45.27985588505324        365.40966642250817
-22.599999999999998      7.308328126852499        45.35016263962437        364.4209465813896
-22.4                    7.317958410179711        45.449572163213226       363.4545875914678
-22.2                    7.3304985203280015       45.568372810012995       362.4812325108341
-22                      7.338367822747894        45.73809575797235        361.36271609162674
-21.8                    7.326871741939949        45.995940660704          360.16711910107506
-21.599999999999998      7.297751886428411        46.31252610624047        358.71099344008127
-21.4                    7.37044329357664         46.17573370927157        356.84116963099285
-21.2                    7.36723562925512         46.235074690689046       355.5602348426266
-21                      7.260621846640222        46.583216892828915       354.76460024367356
-20.8                    7.228749186871715        46.50902624166548        354.091731048003
-20.599999999999998      7.216051114381345        46.39976931169332        353.53554633480064
-20.4                    7.216354506356337        46.26195958930111        353.01588287886256
-20.2                    7.2370436661573585       46.109739952983276       352.52519312421623
-20                      7.259907904939647        45.9796009437877         352.0580306009117
-19.799999999999997      7.281093388785955        45.89899822332696        351.5308118919791
-19.599999999999998      7.3086869389042945       45.842455215857754       350.95575899148247
-19.400000000000002      7.327252734982337        45.90674623931688        350.2370042027752
-19.2                    7.3355178813834065       46.09063007668975        349.3217666532453
-19                      7.3502647866151305       46.32670527629993        347.9429595882152
-18.799999999999997      7.433909958812767        46.3094789659075         345.96242397278047
-18.599999999999998      7.404416430708895        46.65891453450159        344.4458636995821
-18.4                    7.276014180853911        47.310486841554          343.2730744273465
-18.2                    7.260370586327986        47.497590420699694       342.1521142014791
-18.000000000000004      7.272914332469105        47.58205845140215        341.18255767300155
-17.799999999999997      7.300113335066217        47.6326492621838         340.22038171742247
-17.599999999999998      7.345823307852858        47.66178048414211        339.32980830635637
-17.4                    7.396640254284988        47.67881218168073        338.4120049668818
-17.2                    7.453324574991801        47.6872679758393         337.4638679706983
-17                      7.502442668952004        47.74006554383907        336.4106823199594
-16.8                    7.560801871304957        47.79616447859962        335.2405957589577
-16.599999999999998      7.598201261466665        47.947040413782766       333.8287735785119
-16.4                    7.713508131281881        47.72373112211597        331.99020653963674
-16.2                    7.724832571727834        47.80019161125691        330.5536221032504
-16                      7.621573590270275        48.201360163030344       329.29723493197747
-15.799999999999999      7.587602886328465        48.2418622793692         328.1589883791419
-15.599999999999998      7.605099872925854        48.123517453253605       327.13930951142
-15.399999999999999      7.622987368905292        48.10600362451956        326.1604967075981
-15.2                    7.6526375883769395       48.116131036884596       325.1626624149057
-15                      7.682450447959071        48.204507271637986       324.169198392338
-14.799999999999997      7.7128295602630415       48.35010112852223        323.10387895506966
-14.599999999999998      7.734649446977268        48.57625020518687        321.91753181001116
-14.4                    7.74554633207318         48.917997305720455       320.5960304888134
-14.2                    7.74796291060863         49.39396366147845        318.9538607392359
-14                      7.767285834731805        49.90919289987251        316.7783967271807
-13.799999999999997      7.87307373910491         50.00277491981902        313.88102250004823
-13.599999999999998      7.836065283760033        50.392070002849565       312.16815223036997
-13.399999999999999      7.704005643378971        50.94691337975003        311.05442797326583
-13.2                    7.663781746441535        51.13107836797211        310.08299012280804
-13.000000000000002      7.669912595664115        51.22888644353916        309.21427475208645
-12.799999999999997      7.700470984612058        51.277138865288066       308.48065578885706
-12.599999999999998      7.726631422874504        51.348701010380935       307.8093469940463
-12.4                    7.749851863003648        51.41309954910552        307.19938784077146
-12.2                    7.771941300900169        51.46581639112537        306.5542328641188
-12                      7.776120076519806        51.55337717459783        305.8357306891602
-11.799999999999997      7.759996139192525        51.70406153291133        304.95181627624106
-11.599999999999998      7.731831055653595        51.880674369395486       303.75151063622076
-11.399999999999999      7.801877063822191        51.638178414949294       302.1570039793234
-11.2                    7.774244006464758        51.687948166977954       301.1214360403069
-11                      7.619021076513875        51.993514801628585       300.4642718137318
-10.799999999999997      7.555086884496313        51.94741170300326        299.88514654424586
-10.599999999999998      7.516611393164901        51.89982891221407        299.31775207389467
-10.4                    7.492357771082146        51.88164329639793        298.75630467109625
-10.2                    7.4821001139575465       51.87428086238744        298.19788038701375
-10                      7.474404295476741        51.93328238249654        297.56972913457986
-9.799999999999997       7.463141411298461        52.067394169705715       296.843524052385
-9.599999999999998       7.465245538342722        52.22729022176385        296.0437313260555
-9.399999999999999       7.470657281870024        52.44992966258301        295.05395417733064
-9.2                     7.494419456420537        52.72632886254223        293.78260754841136
-9.000000000000002       7.52787602252878         53.09435430396177        292.0148377538836
-8.799999999999997       7.64267273192024         53.18934048045965        289.4282317725959
-8.599999999999998       7.64377776838353         53.51100403774414        287.61577371288956
-8.4                     7.527340911569672        54.09328412845871        286.2511572817935
-8.2                     7.512652878314826        54.25806562072953        285.0293670079509
-8                       7.526967866815109        54.357531567723846       283.9758193923315
-7.799999999999997       7.5523217171567465       54.45425397711979        282.9542697360997
-7.600000000000001       7.5863090738551655       54.552985848010344       281.98150986296736
-7.399999999999999       7.625459413815643        54.666269186057605       281.00466701825195
-7.199999999999996       7.670638423177321        54.78201238413884        279.95643170136987
-7                       7.730051381205347        54.90507224612952        278.8086804745998
-6.799999999999997       7.799089868618992        55.055708311569134       277.50261793861256
-6.600000000000001       7.830858414789953        55.18884092817196        275.945095709706
-6.399999999999999       7.9239357592147215       55.03209065949439        273.9604974214109
-6.199999999999996       7.918401655147957        55.122573841510395       272.2550133025947
-6                       7.7988305481454026       55.53584215342964        270.56468617855165
-5.799999999999997       7.734565750488894        55.69859134053938        269.07680472879264
-5.600000000000001       7.733962967802446        55.652772233988486       267.7730007988894
-5.399999999999999       7.752685318476722        55.625885888504          266.5844146788697
-5.199999999999996       7.778437100271338        55.6098560830084         265.40755598930457
-5                       7.810169184557212        55.59875602027053        264.2372529923841
-4.799999999999997       7.847584668413           55.64268300123958        263.02906037987555
-4.600000000000001       7.879926415784978        55.734037920431504       261.69123008496246
-4.399999999999999       7.918325403959315        55.89335063667122        260.21522374379475
-4.199999999999996       7.963355242538519        56.16890712619184        258.4385418332922
-4                       8.021769207032216        56.59015568603407        256.0667889658167
-3.7999999999999976      8.134205864951296        56.65196676209466        253.06738365398957
-3.6000000000000014      8.122013531290344        56.859762081473505       251.3467005223574
-3.3999999999999986      7.977122882186282        57.25338085896485        250.46858159650418
-3.1999999999999957      7.933177725692538        57.32482745053644        249.5825944030811
-3                       7.923387312938088        57.39268126155805        248.78327442792826
-2.799999999999997       7.92485349151801         57.46286226052976        248.0764261871186
-2.6000000000000014      7.921941499309249        57.55967939998143        247.40388279122772
-2.3999999999999986      7.925607804666967        57.63284153923904        246.66366127006518
-2.1999999999999957      7.92400898885789         57.73124104562413        245.8926693543907
-2                       7.912943314319657        57.87434396738697        244.95460141439403
-1.7999999999999972      7.888167011313925        58.06527498830041        243.84915136086462
-1.5999999999999945      7.845065389291573        58.289394170876186       242.3694175158974
-1.3999999999999986      7.92480282115068         58.10658035845232        240.343467002304
-1.1999999999999957      7.9059477778768          58.12404833936368        239.06619883189657
-1                       7.776129118033124        58.351508440932996       238.227502391703
-0.7999999999999973      7.7237628752228495       58.227661884246096       237.51944646124613
-0.5999999999999943      7.690002200130563        58.101689427401126       236.8244757534369
-0.39999999999999863     7.685447277832337        58.00271125099467        236.16062664170087
-0.19999999999999576     7.696370509977156        57.93481234387325        235.48556498029325
0                        7.725036015269025        57.878334867005165       234.81010774371885
0.20000000000000284      7.7461153373407035       57.883899291663695       234.10394056186973
0.4000000000000057       7.76887697939794         57.93734788860616        233.30806623398476
0.6000000000000014       7.784277182479477        58.0756053850545         232.39752146421844
0.8000000000000043       7.8054589006888255       58.271024362899745       231.24873891287487
1                        7.84332471937159         58.489593852384054       229.67920630643144
1.2000000000000028       7.954390763223484        58.4804175497043         227.50740985895894
1.4000000000000057       7.954602737846719        58.719274046723335       226.07218328500713
1.6000000000000014       7.823950022639298        59.29502291226168        225.13794739978738
1.8000000000000043       7.79772928858233         59.56070499292861        224.28274569879392
2                        7.795641051850614        59.6677111745069         223.51756611218437
2.200000000000003        7.803169067943467        59.72508248015856        222.78914036415915
2.4000000000000057       7.8237903929525165       59.74637750809841        222.08021086643717
2.6000000000000014       7.852672082895004        59.736169473249234       221.30533110556345
2.8000000000000043       7.888769783073706        59.719921305395665       220.44362214091637
3                        7.920977232887886        59.72779869479874        219.4687559389807
3.200000000000003        7.968522521240524        59.713424280579034       218.3139472047153
3.4000000000000057       7.981450416053434        59.755339317097935       216.87397512750584
3.6000000000000014       8.06338400572122         59.564342369208454       215.0704107338522
3.8000000000000043       8.064031389264938        59.58282505796635        213.6446659920843
4                        7.93870722471027         59.87397659682107        212.34702508534608
4.200000000000003        7.887605554718781        59.86912314079205        211.21349786879122
4.400000000000006        7.887171471316546        59.757457531045965       210.19422896562858
4.600000000000001        7.898567201400433        59.69699746056654        209.18358652061215
4.800000000000005        7.921466823389207        59.686745297763565       208.16017416068345
5                        7.947297765175244        59.73533580051722        207.11171468215443
5.200000000000003        7.970198415497979        59.81371692349537        206.06695541447687
5.400000000000006        7.997546010559619        59.94731878749237        204.90844957980212
5.600000000000001        8.014933845309136        60.172865201278675       203.55803571025882
5.800000000000005        8.018139637308035        60.47096560316259        201.9481997383998
6                        8.016337885160667        60.81070560494104        199.77593809008064
6.200000000000003        8.113835483553858        60.878411146589336       197.08551261134238
6.400000000000006        8.107233571487143        61.12306078176108        195.35895225807198
6.600000000000001        7.977354104755996        61.58162800306525        194.33737180716687
6.800000000000005        7.941387288342922        61.740824688892964       193.43215262681545
7                        7.949649971089437        61.83368339366306        192.58476088243734
7.200000000000003        7.975237194492715        61.8866853855912         191.88049456645282
7.400000000000006        8.00616135843973         61.927055294666545       191.27041576451623
7.600000000000001        8.037934376790886        61.94506543036462        190.6728709829185
7.800000000000005        8.061362518750363        61.96578806568268        190.10711781694854
8                        8.055908626634796        62.013933408065625       189.41710141622409
8.200000000000003        8.028301088196294        62.08167043652764        188.55681463845124
8.400000000000006        7.982079832993182        62.16928802574827        187.34077072912578
8.600000000000001        8.045411094923264        61.9463427786326         185.66009920987227
8.800000000000004        8.011654760065923        61.96290399186564        184.5409196573534
9.000000000000002        7.870636376398667        62.18859314882985        183.81654564933524
9.200000000000003        7.788482743420454        62.11669735184794        183.213419608345
9.400000000000006        7.748256879352526        62.05559098208265        182.56482826879525
9.600000000000001        7.724145713257861        62.02581319464828        181.89793242412023
9.800000000000004        7.70980619851969         62.030601327121104       181.24387879384994
10                       7.701944874253276        62.06446325956195        180.56344121416683
10.200000000000003       7.701458188547627        62.122382353191725       179.79152412533787
10.400000000000006       7.710607263317822        62.24192228302639        178.9121792402062
10.600000000000001       7.721077390781421        62.43442112449189        177.9065481297986
10.800000000000004       7.7470570105377075       62.73937643557061        176.6054526723609
11                       7.793627706704191        63.150472840772125       174.82467600691245
11.200000000000003       7.911457779118626        63.33215331624447        172.3057392174995
11.400000000000006       7.915941294895585        63.638953058067194       170.6056401848944
11.600000000000001       7.791270223954169        64.10946513931799        169.26584553894043
11.800000000000004       7.777362970414595        64.27238397006477        168.08413100146183
12                       7.800212672830474        64.37091934970807        167.13018959552159
12.200000000000003       7.822556086817967        64.45826724688774        166.18583146882176
12.400000000000006       7.8494437650366615       64.55464232406543        165.2706178209028
12.600000000000001       7.88478961719226         64.64839987616617        164.2653231204926
12.800000000000004       7.938778115456845        64.70643673076881        163.22595027700729
13.000000000000002       7.986387926597157        64.80760876207772        162.04225388625176
13.200000000000003       8.054228750788097        64.90207814866592        160.70060228044602
13.400000000000006       8.102651867342395        64.97890694358601        159.03672850232923
13.600000000000001       8.207343758510321        64.82231294581881        156.95661358604684
13.800000000000004       8.206084140947876        64.88220682242532        155.25672280192262
14                       8.081657056893267        65.17605434760767        153.47694337282715
14.200000000000003       8.023133285320947        65.2803228197649         151.95340824945566
14.400000000000006       8.016747174644372        65.23511392559824        150.64224019245228
14.600000000000001       8.034426742243697        65.20062841200524        149.43501920506014
14.800000000000004       8.061087489119767        65.19641266034031        148.27326118146988
15                       8.097942600890097        65.20095326551473        147.0881155796951
15.200000000000003       8.144174954642077        65.23017517258552        145.8983985694427
15.400000000000006       8.188198611831904        65.31771983191679        144.590535206721
15.600000000000001       8.23228824465138         65.46548471479647        143.11162874646723
15.800000000000004       8.27181527740867         65.72495191385234        141.4004362697375
16                       8.329355017618697        66.06988660397582        138.93370895238607
16.200000000000003       8.432042170819098        66.17705557714602        135.97334091726455
16.400000000000006       8.416889113305457        66.39359508204983        134.29705739145137
16.6                     8.26134151413952         66.78061293666738        133.41398138962637
16.800000000000004       8.210006298652392        66.89529947644432        132.65025615980554
17                       8.194745975506043        66.97650898949742        131.92516287240218
17.200000000000003       8.1957633627632          67.04812680590045        131.25688429684558
17.400000000000006       8.202032397414774        67.1186314544682         130.5916956778733
17.6                     8.206881121365832        67.18430382455645        129.91306752541504
17.800000000000004       8.195105979103994        67.26640890385087        129.1742082094351
18.000000000000004       8.172597414744972        67.36227399466235        128.27459419983757
18.200000000000003       8.135369657290207        67.48999152997122        127.171580980783
18.400000000000006       8.079928087210098        67.62527806052616        125.75530659718079
18.6                     8.149962009586078        67.47552416882253        123.78822848011013
18.800000000000004       8.130681033051486        67.46629912823704        122.38254332231718
19                       7.987536134963073        67.66481580739472        121.52129552228438
19.200000000000003       7.906577789789087        67.62771348790918        120.77538386717039
19.40000000000001        7.879792849772416        67.52731522138325        120.0392438204634
19.6                     7.873036767154134        67.46120707592026        119.34293623490956
19.800000000000004       7.882674489173396        67.39572151710291        118.6669893539442
20                       7.897625731529815        67.37163073332604        117.96551023710427
20.200000000000003       7.909460222195494        67.39098730527195        117.22021166245287
20.400000000000006       7.922980858798025        67.43058743734495        116.41038324168132
20.6                     7.939435098267633        67.51592224001257        115.43826990219443
20.800000000000004       7.947853125178012        67.71451987640431        114.20931454841664
21                       7.97603651828215         67.95573552948967        112.48600943654772
21.200000000000003       8.077176017702428        68.02220609441757        110.17191582554658
21.400000000000006       8.054584968034275        68.25693734370185        108.56056640503472
21.6                     7.910660354756968        68.701352092387          107.41622569077111
21.800000000000004       7.8675300921309566       68.90363131208657        106.43576089810134
22                       7.854968443950008        69.01708863203521        105.63423898955377
22.200000000000003       7.865358530548778        69.0764836554231         104.8268901827615
22.400000000000006       7.8961907655984005       69.10687729967343        104.0124522941466
22.6                     7.930242161482929        69.1115124690338         103.17072301842092
22.800000000000004       7.966248175445427        69.10721999854408        102.26370985463076
23                       7.997003424255425        69.10581440726108        101.25978495052127
23.200000000000003       8.023742906698125        69.12194173492053        100.06613388651314
23.40000000000001        8.039654523492024        69.1544048576703         98.58612516255734