% Model:              Gyroid2-0.5.mph
% Version:            COMSOL 6.2.0.290
% Date:               Apr 30 2025, 20:01
% Table:              切面 - 切面
% zp (mm)                速度大小 (m/s)               温度 (degC)                压力 (Pa)
-40                      3.5       20       310.58007340822076
-39.8                    3.671641717139289        27.29533114055728        307.77950883283415
-39.6                    3.9014542580260505       28.566879192991966       304.783231579012
-39.4                    4.078490450498944        29.712205008510818       302.1842923026161
-39.2                    4.216775833672299        30.809057499785688       299.9888291818771
-39                      4.334658310636491        31.907705795882514       297.9862204515147
-38.800000000000004      4.479262002750886        32.40865032222281        295.938825302528
-38.6                    4.545954091885682        33.13339122120617        294.2944170704637
-38.4                    4.533289183533887        34.13377449749871        292.6978248207963
-38.2                    4.566363467490977        34.49578377826208        291.45775722345786
-38                      4.624495204113486        34.66417950120117        290.4248307880695
-37.8                    4.692637716892634        34.73114628757074        289.5075992206975
-37.6                    4.770505822741717        34.73350588077035        288.6886275916542
-37.400000000000006      4.8440913191896815       34.73776685672449        287.92158498830236
-37.2                    4.913691121203932        34.745878245513424       287.1740617682119
-37                      4.971104667214872        34.82544914605657        286.40492414163157
-36.8                    5.012440182989401        34.99602050655871        285.6282531216715
-36.6                    5.041565375264034        35.24628429217178        284.7547118202475
-36.4                    5.128082856846857        35.066036990303516       283.7793956006674
-36.2                    5.147365948282444        35.287005781724176       282.7215501648648
-36.00000000000001       5.092837127262028        35.85819082128143        281.50303999491416
-35.8                    5.0965036479894          36.10143745614964        280.40362606892126
-35.6                    5.129140585524473        36.06463389016112        279.41700948253833
-35.4                    5.16222965539489         36.079888657600975       278.44550232955845
-35.2                    5.203494175754014        36.115416137290524       277.49451629670403
-35                      5.247704500989941        36.2179005280596         276.5155900870331
-34.8                    5.296712674925446        36.33720475839177        275.4991249594962
-34.6                    5.340005251204182        36.57822671592136        274.41759205308733
-34.4                    5.390266119139142        36.89656973104735        273.2191347032862
-34.2                    5.430499654138315        37.40935757607071        271.9003269118882
-34                      5.472625093638876        38.094619374555116       270.2444865609726
-33.8                    5.58064031532484         38.21376419725994        268.2207343634318
-33.6                    5.598987908941631        38.53913151883238        266.91872646909843
-33.4                    5.539530100207609        39.04168819620386        266.0740945606827
-33.2                    5.53753581282121         39.08077070785298        265.32729616655155
-33                      5.571768245869631        39.03292229441959        264.6672748136046
-32.8                    5.610783461595169        39.01167360860113        264.12376060923054
-32.6                    5.6566972327249525       38.94527306035713        263.65175333337703
-32.4                    5.691180530517505        38.937657039047075       263.22466208779
-32.2                    5.717491081947412        38.991656595111195       262.84454399528704
-32                      5.731457153780712        39.13799361201099        262.4167714446557
-31.799999999999994      5.728072471897427        39.415294905647244       261.91958597451367
-31.6                    5.704099089952344        39.88241531780103        261.305505784028
-31.4                    5.755556900460199        39.74304237737775        260.43675079458626
-31.2                    5.741666382615612        39.865923407011486       259.9320822535662
-31                      5.646858439598166        40.341354296727715       259.6515244525908
-30.799999999999997      5.593086706003276        40.362231774787894       259.4571453551457
-30.6                    5.5670437272618845       40.21251107351458        259.26605848990425
-30.4                    5.546443048038752        40.086699330465635       259.11888790053916
-30.200000000000003      5.524483336722464        40.047542279991525       258.90481580633974
-30                      5.514896156387812        40.01919594577421        258.6884411159447
-29.799999999999997      5.502042130243981        40.062398805004065       258.39578822007496
-29.6                    5.491882209815071        40.194652713729795       258.00993345000546
-29.4                    5.483109242686498        40.411341366419734       257.5459908634999
-29.2                    5.4762195360660755       40.77453813994096        256.85628400484046
-29                      5.461359103149724        41.38638521931376        255.88660949276007
-28.8                    5.5098816076740915       41.634753190822096       254.3680476328068
-28.6                    5.49253627689473         42.08105213844777        253.27907450855116
-28.4                    5.400788007228149        42.792782261967595       252.40628099914125
-28.2                    5.382687710832995        43.001250713722165       251.68184851644537
-28                      5.400027915237043        43.09523468377078        251.02816912655982
-27.799999999999997      5.432498513835778        43.16977370092957        250.418953935261
-27.6                    5.470558323999038        43.239996754640636       249.85931194792798
-27.400000000000002      5.50114373915622         43.37046786470424        249.2670380984477
-27.2                    5.539381923208293        43.48625253816779        248.63459024383096
-27                      5.575310773170808        43.65555869221886        247.93032367826765
-26.799999999999997      5.607715062263352        43.91116646356173        247.12214619684303
-26.6                    5.639056358253022        44.17170597940347        246.20360431011298
-26.4                    5.726032881059337        43.98264696555405        245.02341877532766
-26.200000000000003      5.717325177451658        44.23153755675394        243.98031523588568
-26.000000000000004      5.626543126906925        44.84558867655242        242.87450894262216
-25.799999999999997      5.592625907996939        45.104185061926984       241.95991492765748
-25.6                    5.602525323819543        45.153512027092106       241.1404339268594
-25.4                    5.628881852574801        45.21341435290419        240.37131384227894
-25.2                    5.662657199765094        45.28057999115816        239.60944537552786
-25                      5.70301775497295         45.33916786021464        238.86239917820404
-24.8                    5.742968370742519        45.42513808117387        238.09257151334137
-24.6                    5.783449533617647        45.576080665653805       237.2606846149341
-24.4                    5.816513624166215        45.83790320073116        236.34421089609748
-24.2                    5.840994776468463        46.27776350174412        235.2119433441576
-24                      5.851434863469519        46.8337301104619         233.72503406924554
-23.8                    5.929877664162112        46.87288965529817        231.79409559544538
-23.599999999999998      5.916293744701318        47.15414948738385        230.56802329913342
-23.400000000000002      5.801801548926011        47.71117719812155        229.77533573263216
-23.2                    5.754521124380787        47.84056367751601        229.05445411363738
-23                      5.740963648795789        47.896765350474396       228.36631307340028
-22.8                    5.741163387805841        47.966772998319676       227.73965615821527
-22.599999999999998      5.749069044019994        48.02815501770013        227.13297471318296
-22.4                    5.756025503177517        48.11879176333357        226.53822171922144
-22.2                    5.764895856852754        48.23190319235552        225.93733710152515
-22                      5.769784924133083        48.39823188269033        225.24345146832658
-21.8                    5.759166612646082        48.66183668706988        224.49871187903057
-21.599999999999998      5.736076382010512        48.972054756456686       223.5904953373183
-21.4                    5.795366996997514        48.80946178544928        222.42331085112542
-21.2                    5.794726991211195        48.862772345388805       221.62232117309694
-21                      5.7116823478541825       49.22032856782127        221.12289838786074
-20.8                    5.687628548074457        49.14364647801671        220.7004476352368
-20.599999999999998      5.679277924139767        49.01761959171214        220.35059717388106
-20.4                    5.68001358550962         48.87415223629336        220.02392095037635
-20.2                    5.695675940397134        48.716054878502575       219.71629009439758
-20                      5.7122692248113145       48.585156327302094       219.4247194733405
-19.799999999999997      5.727326410129703        48.50659978351581        219.09561311906546
-19.599999999999998      5.74761818478469         48.45446982195583        218.73635312903713
-19.400000000000002      5.760938547623454        48.53463733978524        218.28679458749275
-19.2                    5.765656317680274        48.74246328762759        217.7148223930054
-19                      5.776195409293253        48.99989323905951        216.85607665364103
-18.799999999999997      5.844041150143859        48.98456311462237        215.62561149073343
-18.599999999999998      5.822567375594065        49.35655958972185        214.67956395052568
-18.4                    5.72310460363172         50.04582089044513        213.9433484590204
-18.2                    5.7124712605670345       50.25355293667686        213.24275362279147
-18.000000000000004      5.723109019793374        50.35168300443417        212.63779534135622
-17.799999999999997      5.745017092929808        50.4187629748838         212.03927359921857
-17.599999999999998      5.780390684769774        50.46672971799456        211.48537793247866
-17.4                    5.819448726780573        50.501704854450324       210.91416762837477
-17.2                    5.863574033944835        50.52854030684041        210.3235326145919
-17                      5.902309888156433        50.59799192274952        209.66678655149002
-16.8                    5.949903995363494        50.66279434437004        208.93694118260697
-16.599999999999998      5.978557909226087        50.81288037349033        208.05876875746247
-16.4                    6.070776967632161        50.57168449914937        206.91943584571257
-16.2                    6.079614637086477        50.655779995039076       206.02636499686352
-16                      5.997934653729353        51.07675637363119        205.24291564204833
-15.799999999999999      5.970069023940836        51.141171068090415       204.53444515235302
-15.599999999999998      5.983602970427242        51.02261399256994        203.90146453877583
-15.399999999999999      5.997771548418271        50.99770770437986        203.29479557437804
-15.2                    6.021279253661222        50.9986787022676         202.6773785659855
-15                      6.045035017967007        51.07890106007807        202.06362198152434
-14.799999999999997      6.069100768740434        51.223412086854644       201.40654264661126
-14.599999999999998      6.086352176357952        51.46011352474155        200.67489001990748
-14.4                    6.094661134295062        51.824172052158794       199.860927822057
-14.2                    6.096245558461877        52.33359763311141        198.85025285729515
-14                      6.112415406300131        52.85863915883367        197.50927203877393
-13.799999999999997      6.196335936680986        52.95685718300212        195.7240488337132
-13.599999999999998      6.167820273905136        53.36540796075392        194.66909123465967
-13.399999999999999      6.065147593509905        53.94788872158012        193.98653838663418
-13.2                    6.033852845610257        54.15123189184499        193.3893962365854
-13.000000000000002      6.038570096451424        54.258392608297754       192.85378345807626
-12.799999999999997      6.062487219627058        54.312797015994114       192.40090773758385
-12.599999999999998      6.082423492460419        54.39482424533457        191.98579754954238
-12.4                    6.0992895081094          54.47038599373185        191.6072970827474
-12.2                    6.114764894359215        54.5351402611934         191.20346394409182
-12                      6.115234383347938        54.64203455837731        190.7507992096735
-11.799999999999997      6.098741846119191        54.817635067989336       190.19228948117367
-11.599999999999998      6.074886475671933        54.99231447738466        189.4356256627319
-11.399999999999999      6.129356686061435        54.74766891602843        188.43350522467892
-11.2                    6.10619038744337         54.81226100483678        187.78143937387512
-11                      5.983607544632519        55.14910970093693        187.36683058669203
-10.799999999999997      5.932614842087659        55.12875384367441        187.0015621237455
-10.599999999999998      5.901715692758715        55.09185640455089        186.64303710021434
-10.4                    5.882915673874385        55.075479549344145       186.28961553148795
-10.2                    5.875633509540929        55.07061224715555        185.94294672196054
-10                      5.8701999395232605       55.13582463631253        185.55400292141138
-9.799999999999997       5.86205154432254         55.27709902438463        185.10597768843144
-9.599999999999998       5.864824552274725        55.44109509751243        184.6125550497312
-9.399999999999999       5.871267171222134        55.667336852929864       184.00184645895408
-9.2                     5.892352879616566        55.95236402205048        183.2192340758169
-9.000000000000002       5.92230285443856         56.3205225368478         182.13144527040507
-8.799999999999997       6.015964433770039        56.413266843224164       180.54177593613505
-8.599999999999998       6.01936489578411         56.741478822653924       179.42671225300018
-8.4                     5.929268450093469        57.33980190915371        178.58246266796377
-8.2                     5.91837063534681         57.520790684744526       177.8272206067894
-8                       5.929910096792371        57.62505370678592        177.17575737246003
-7.799999999999997       5.950534256924213        57.72165134129906        176.54175471700498
-7.600000000000001       5.977774761105057        57.81885145252082        175.93589812693955
-7.399999999999999       6.008788478608297        57.93098046569943        175.3268405404002
-7.199999999999996       6.044986848597879        58.04452168447228        174.67263764542972
-7                       6.092635115743332        58.16211950332635        173.9559160794727
-6.799999999999997       6.145970233625396        58.30647376790352        173.1412176477156
-6.600000000000001       6.168487169642814        58.43136674053271        172.17163118826107
-6.399999999999999       6.241515933554736        58.25903622833042        170.93893200019278
-6.199999999999996       6.23648770095186         58.34714141922167        169.8758028514687
-6                       6.141627015129404        58.76513593150213        168.81585778033093
-5.799999999999997       6.090764227021356        58.938359973709375       167.881657348878
-5.600000000000001       6.089586636884479        58.900138229673765       167.06455656677107
-5.399999999999999       6.102912897965546        58.86908790470732        166.31997524736292
-5.199999999999996       6.122374904479624        58.84790998519393        165.58470162814672
-5                       6.146739274701474        58.83781931812936        164.85558954621456
-4.799999999999997       6.1758338398360335       58.88491912657814        164.104432267757
-4.600000000000001       6.200703232237741        58.98678039335823        163.27590440264464
-4.399999999999999       6.2304441339866585       59.15943068428651        162.36188573179015
-4.199999999999996       6.266083483251078        59.459440525923384       161.26170764974313
-4                       6.314214097812904        59.88164302015906        159.79149974283425
-3.7999999999999976      6.4041685026803075       59.94695473668312        157.93241314828975
-3.6000000000000014      6.395830289642641        60.16680038983863        156.86729289702745
-3.3999999999999986      6.283099019894035        60.586048336057274       156.32700816485504
-3.1999999999999957      6.248475079480799        60.67173841058453        155.77794775505618
-3                       6.240625575017176        60.74423849705238        155.28177148932468
-2.799999999999997       6.241113296227834        60.81745432968598        154.84073423655755
-2.6000000000000014      6.237665291108217        60.91543969033504        154.41812666785853
-2.3999999999999986      6.239131376924355        60.98682376455203        153.95277879893604
-2.1999999999999957      6.235927931063386        61.08459256205922        153.4649664991696
-2                       6.225064462421875        61.22702805214368        152.87132955054096
-1.7999999999999972      6.202830173293157        61.42145789610726        152.17184835079496
-1.5999999999999945      6.167195970692728        61.63662107383282        151.24005131441155
-1.3999999999999986      6.229532940963792        61.450649336301296       149.96822313139498
-1.1999999999999957      6.212962642921269        61.492191166282446       149.1645398133171
-1                       6.1108079206243255       61.765232879321104       148.6315495530635
-0.7999999999999973      6.074197611314338        61.69856850563988        148.17905035070552
-0.5999999999999943      6.051391173052258        61.598584258210074       147.73294617788557
-0.39999999999999863     6.049296996941408        61.50780842279732        147.30516060916193
-0.19999999999999576     6.058060423333121        61.441311294625756       146.86983133193584
0                        6.0795575209785175       61.379205739409805       146.4335188795254
0.20000000000000284      6.093512845515988        61.38086342514609        145.97918697293477
0.4000000000000057       6.108392803284137        61.43052582490703        145.46958821191555
0.6000000000000014       6.117549235530968        61.56622269682976        144.88680757096753
0.8000000000000043       6.132136398229987        61.75800470779361        144.15380424846126
1                        6.162593314516328        61.964529734831096       143.15678230841314
1.2000000000000028       6.252895170761563        61.956207795408645       141.78420992872785
1.4000000000000057       6.255631258773609        62.19330749859355        140.87198539027264
1.6000000000000014       6.154606997375946        62.762017122738484       140.27056899215333
1.8000000000000043       6.1377073170635965       63.022666157767425       139.72230330765606
2                        6.140177417534863        63.12587628510466        139.23055652450313
2.200000000000003        6.148977823984026        63.17978235316162        138.76296232238954
2.4000000000000057       6.166469856132536        63.199256260140174       138.31232002010054
2.6000000000000014       6.1900747093930795       63.18876234148692        137.8248560827069
2.8000000000000043       6.219849860615209        63.168428973386774       137.288971371287
3                        6.24670272708872         63.17006752720719        136.68513433785316
3.200000000000003        6.285344280890625        63.14769849875705        135.96913408827186
3.4000000000000057       6.294399734130634        63.16377927317114        135.0775280790689
3.6000000000000014       6.360422110463224        62.94019239378226        133.96226173169345
3.8000000000000043       6.3611005526875175       62.94264938679675        133.08521035119455
4                        6.261711514377212        63.2326428983403         132.293879746085
4.200000000000003        6.219395545736882        63.238452167897535       131.60274318457306
4.400000000000006        6.2181378154107065       63.11855856448326        130.9805448339848
4.600000000000001        6.226026554650537        63.04867868595927        130.36188781888666
4.800000000000005        6.243813201282325        63.0308004869582         129.73467639575273
5                        6.264579544102995        63.076567523643675       129.09216370496887
5.200000000000003        6.283439595988639        63.15613655557182        128.44957735324382
5.400000000000006        6.306220341813868        63.291916621421954       127.73434260919699
5.600000000000001        6.321185716542397        63.52779615403204        126.9002089170584
5.800000000000005        6.325113078432626        63.84495934874733        125.90130257872029
6                        6.32811906786287         64.1958919364728         124.53678361277817
6.200000000000003        6.4076525549315875       64.27159590966008        122.84397866695491
6.400000000000006        6.4032679387788045       64.52832282369462        121.77259478202885
6.600000000000001        6.301747127653047        64.99934000170315        121.14977669698754
6.800000000000005        6.273601883842455        65.16797662652253        120.59886701672924
7                        6.280427987909328        65.26489628536224        120.08074593285808
7.200000000000003        6.30089822975236         65.32394665920646        119.65092082190885
7.400000000000006        6.325321975775185        65.37071416436095        119.27689653511864
7.600000000000001        6.350116950756351        65.39738652402828        118.90926372659239
7.800000000000005        6.367667357368977        65.42651038449598        118.55829958849019
8                        6.361329952935681        65.48425170987589        118.12749393156098
8.200000000000003        6.335971785528291        65.56605503121628        117.58869560037915
8.400000000000006        6.297831623485472        65.65279881570723        116.82506796635606
8.600000000000001        6.348775072158933        65.427618839741          115.77163048372721
8.800000000000004        6.321849097397761        65.45057849704436        115.07421995513694
9.000000000000002        6.209743076107674        65.69508723248859        114.62283345071755
9.200000000000003        6.145459180445657        65.65635455565275        114.24841521599107
9.400000000000006        6.114927227434696        65.60445111569062        113.84814224490071
9.600000000000001        6.097128400518019        65.581620069161          113.43812270810173
9.800000000000004        6.086750489373146        65.58956612521234        113.03539871354795
10                       6.081015941466576        65.62752772977605        112.61495723874792
10.200000000000003       6.079957386357201        65.69309815003986        112.13677162841282
10.400000000000006       6.086011741101474        65.81929896523235        111.59010164631141
10.600000000000001       6.09300488988843         66.01761132292778        110.96236302360708
10.800000000000004       6.113128863459008        66.31917326184285        110.15056373025918
11                       6.152638425673946        66.70859582662021        109.03993392088236
11.200000000000003       6.247803212369055        66.8746406511337         107.46931042871151
11.400000000000006       6.25162011362288         67.17877555734891        106.40468241445714
11.600000000000001       6.15321465390213         67.65066701766338        105.56650183928699
11.800000000000004       6.142030106715447        67.81821626093145        104.82662700624273
12                       6.160726651938368        67.91705975813522        104.22930962609615
12.200000000000003       6.179255795868984        68.00354402626259        103.63944461850014
12.400000000000006       6.201762239280985        68.09585720270714        103.06878570592635
12.600000000000001       6.2309016635531265       68.18536625350465        102.4427845154409
12.800000000000004       6.2740022940951015       68.24143617967383        101.79590138993292
13.000000000000002       6.310905146069016        68.34051313956259        101.06119724117335
13.200000000000003       6.365238328671434        68.43136335753037        100.22840828818337
13.400000000000006       6.401165107900923        68.49574722840103        99.19602408183778
13.600000000000001       6.483161535854513        68.3335120600592         97.90512238915262
13.800000000000004       6.48136079060283         68.39147351722217        96.84875026818138
14                       6.3827206855595415       68.68291971547069        95.742988977009
14.200000000000003       6.336097371499741        68.79441214859406        94.79544710736414
14.400000000000006       6.328940366668817        68.76093555263786        93.97806519170736
14.600000000000001       6.339730203340639        68.72850843109839        93.22511919649871
14.800000000000004       6.35824822163425         68.72322034161556        92.50028417119394
15                       6.385314658991543        68.72995845001212        91.76075567112193
15.200000000000003       6.420340383239803        68.76167447045479        91.01913296659664
15.400000000000006       6.453543384226648        68.85356246480046        90.20521453523811
15.600000000000001       6.487332510169515        69.00893473866539        89.2860170744372
15.800000000000004       6.517916501794489        69.27896176058866        88.22214326989035
16                       6.565174800105111        69.61147609644458        86.68703038633167
16.200000000000003       6.648374557045749        69.7118599504261         84.84366342732079
16.400000000000006       6.638304152013064        69.92517051049175        83.80434279358114
16.6                     6.517843015139012        70.30975423802582        83.2685312372174
16.800000000000004       6.4788161908877795       70.42915370751649        82.8018280876839
17                       6.467273093278002        70.5123829692016         82.35660312791981
17.200000000000003       6.468250543876222        70.58316439223087        81.94534491434118
17.400000000000006       6.4725840658133205       70.65022879775191        81.53502682407981
17.6                     6.475022613993421        70.7115413522076         81.11437621265053
17.800000000000004       6.4640161360469355       70.78829340992746        80.65452763716686
18.000000000000004       6.443996027859079        70.87785612520523        80.09247896880723
18.200000000000003       6.412316274864344        70.99527971639864        79.40088393480762
18.400000000000006       6.367604899932491        71.11212220479023        78.5116658169931
18.6                     6.423014745473477        70.95303206529869        77.27630944987173
18.800000000000004       6.407444342151491        70.94280613291434        76.39425172343347
19                       6.2949462713556255       71.1373370624353         75.85093662153552
19.200000000000003       6.231216252657059        71.1115298697296         75.38064729231449
19.40000000000001        6.209600995312608        71.01464231091052        74.91716295611515
19.6                     6.203775754912056        70.94984326082319        74.47896975981193
19.800000000000004       6.210599431782467        70.8860872638418         74.05462593337944
20                       6.221680880677388        70.86066892013007        73.61546600543352
20.200000000000003       6.230364587158194        70.8780737131997         73.15122480203206
20.400000000000006       6.240378547570769        70.9170630575307         72.64833133726835
20.6                     6.252877809571329        71.00288029232492        72.04508991228606
20.800000000000004       6.25952114185678         71.20165547880033        71.28352548874335
21                       6.2821239639182735       71.44249199223057        70.21475705426428
21.200000000000003       6.3639340590055635       71.50861000836096        68.77858176973935
21.400000000000006       6.347479383253407        71.73775373434961        67.77929233834067
21.6                     6.234933184814905        72.17004934795685        67.07175533690831
21.800000000000004       6.2021402325931          72.36834479079775        66.46637487850282
22                       6.193695189788369        72.48121917227127        65.97287906825366
22.200000000000003       6.202817181000788        72.54203070300862        65.47649180715602
22.400000000000006       6.227393608144659        72.57506503045043        64.97590301908583
22.6                     6.254492759742064        72.58578219869688        64.4598574370306
22.800000000000004       6.282949346962627        72.58738732751448        63.90418190017388
23                       6.306904564390812        72.5911368160004         63.28882331476091
23.200000000000003       6.32649259777            72.61099817542511        62.5560798773813
23.40000000000001        6.3385641536006805       72.62984161150695        61.64527800365559